/*--------------------------------*- C++ -*----------------------------------*\
| =========                 |                                                 |
| \\      /  F ield         | OpenFOAM: The Open Source CFD Toolbox           |
|  \\    /   O peration     | Version:  2.2.x                                 |
|   \\  /    A nd           | Web:      www.OpenFOAM.org                      |
|    \\/     M anipulation  |                                                 |
\*---------------------------------------------------------------------------*/
FoamFile
{
    version     2.0;
    format      ascii;
    class       volScalarField;
    location    "0.006";
    object      CourantNo;
}
// * * * * * * * * * * * * * * * * * * * * * * * * * * * * * * * * * * * * * //

dimensions      [0 0 0 0 0 0 0];

internalField   nonuniform List<scalar> 
24400
(
8.31116e-10
1.09993e-09
1.22874e-09
1.25465e-09
1.20185e-09
1.09428e-09
9.53361e-10
7.95122e-10
6.29222e-10
4.60387e-10
4.34352e-10
5.78016e-10
7.4606e-10
9.07627e-10
1.05402e-09
1.17006e-09
1.2329e-09
1.21353e-09
1.08313e-09
8.23931e-10
1.1173e-09
1.38199e-09
1.51292e-09
1.54153e-09
1.49012e-09
1.38291e-09
1.24201e-09
1.08375e-09
9.17802e-10
7.4887e-10
7.22792e-10
8.66554e-10
1.03467e-09
1.19611e-09
1.34208e-09
1.45743e-09
1.51969e-09
1.5007e-09
1.37299e-09
1.1146e-09
1.25332e-09
1.51954e-09
1.65352e-09
1.68311e-09
1.63124e-09
1.52326e-09
1.38176e-09
1.22311e-09
1.05693e-09
8.87853e-10
8.61687e-10
1.00554e-09
1.17392e-09
1.33563e-09
1.48167e-09
1.59662e-09
1.65792e-09
1.63776e-09
1.50974e-09
1.25287e-09
1.26951e-09
1.53707e-09
1.67221e-09
1.70165e-09
1.67123e-09
1.61804e-09
1.50571e-09
1.35986e-09
1.19779e-09
1.02917e-09
1.00216e-09
1.14404e-09
1.30706e-09
1.45506e-09
1.57165e-09
1.63241e-09
1.67486e-09
1.65406e-09
1.52526e-09
1.26861e-09
1.19939e-09
1.46833e-09
1.6035e-09
1.65631e-09
1.69166e-09
1.63802e-09
1.52537e-09
1.37931e-09
1.2171e-09
1.04836e-09
1.02124e-09
1.1631e-09
1.32625e-09
1.47444e-09
1.59128e-09
1.65223e-09
1.62704e-09
1.58375e-09
1.45425e-09
1.19696e-09
1.07605e-09
1.34553e-09
1.48024e-09
1.58685e-09
1.62173e-09
1.56772e-09
1.4548e-09
1.30855e-09
1.14621e-09
9.77363e-10
9.5017e-10
1.09204e-09
1.25529e-09
1.40366e-09
1.52075e-09
1.58199e-09
1.55701e-09
1.45967e-09
1.32985e-09
1.07189e-09
9.23105e-10
1.19261e-09
1.32687e-09
1.46086e-09
1.49539e-09
1.4411e-09
1.32797e-09
1.18158e-09
1.01912e-09
8.50176e-10
8.22967e-10
9.64894e-10
1.12822e-09
1.27674e-09
1.39406e-09
1.45557e-09
1.43087e-09
1.30606e-09
1.17627e-09
9.17921e-10
7.56133e-10
1.0255e-09
1.15943e-09
1.30473e-09
1.33902e-09
1.28452e-09
1.17124e-09
1.02473e-09
8.62184e-10
6.93166e-10
6.65992e-10
8.08007e-10
9.71399e-10
1.12003e-09
1.23752e-09
1.29926e-09
1.27481e-09
1.13869e-09
1.00905e-09
7.50561e-10
5.83853e-10
8.53036e-10
9.87977e-10
1.13535e-09
1.16948e-09
1.11484e-09
1.00144e-09
8.5484e-10
6.92224e-10
5.23152e-10
4.96052e-10
6.38179e-10
8.01613e-10
9.50325e-10
1.06793e-09
1.12984e-09
1.10558e-09
9.67079e-10
8.3669e-10
5.78181e-10
4.14392e-10
6.83569e-10
8.1902e-10
9.66487e-10
1.00073e-09
9.46235e-10
8.33004e-10
6.86574e-10
5.24123e-10
3.55207e-10
3.28386e-10
4.70792e-10
6.34387e-10
7.83285e-10
9.0111e-10
9.63255e-10
9.39264e-10
8.01021e-10
6.7033e-10
4.11943e-10
4.1853e-10
6.87795e-10
8.2325e-10
9.7093e-10
1.00541e-09
9.5118e-10
8.38218e-10
6.9205e-10
5.29844e-10
3.61148e-10
3.34674e-10
4.77391e-10
6.41125e-10
7.90165e-10
9.08137e-10
9.70432e-10
9.46586e-10
8.08472e-10
6.77941e-10
4.196e-10
5.91802e-10
8.61039e-10
9.95785e-10
1.14359e-09
1.17819e-09
1.12408e-09
1.01124e-09
8.65192e-10
7.03093e-10
5.3449e-10
5.08262e-10
6.51178e-10
8.14897e-10
9.6391e-10
1.08184e-09
1.14408e-09
1.12016e-09
9.81958e-10
8.51999e-10
5.93547e-10
7.63342e-10
1.03248e-09
1.16677e-09
1.31153e-09
1.3463e-09
1.29236e-09
1.17967e-09
1.03376e-09
8.71787e-10
7.03292e-10
6.77348e-10
8.20486e-10
9.8418e-10
1.13316e-09
1.25105e-09
1.31324e-09
1.28925e-09
1.15393e-09
1.02457e-09
7.66034e-10
9.29584e-10
1.19853e-09
1.33304e-09
1.46617e-09
1.50116e-09
1.44743e-09
1.33494e-09
1.18919e-09
1.02735e-09
8.5898e-10
8.33354e-10
9.7674e-10
1.1404e-09
1.28934e-09
1.40718e-09
1.46932e-09
1.44527e-09
1.32155e-09
1.19205e-09
9.33441e-10
1.08204e-09
1.35067e-09
1.48539e-09
1.59111e-09
1.62634e-09
1.57287e-09
1.4606e-09
1.31503e-09
1.15335e-09
9.85109e-10
9.59832e-10
1.10348e-09
1.2671e-09
1.41599e-09
1.53379e-09
1.59588e-09
1.57178e-09
1.47544e-09
1.34579e-09
1.08713e-09
1.20464e-09
1.47292e-09
1.60777e-09
1.66039e-09
1.69576e-09
1.64253e-09
1.53051e-09
1.38515e-09
1.22364e-09
1.05553e-09
1.03062e-09
1.17455e-09
1.3381e-09
1.48694e-09
1.60469e-09
1.66674e-09
1.64262e-09
1.59936e-09
1.46959e-09
1.21094e-09
1.27199e-09
1.54002e-09
1.67498e-09
1.70358e-09
1.67517e-09
1.62207e-09
1.51027e-09
1.36513e-09
1.20379e-09
1.03582e-09
1.01129e-09
1.15549e-09
1.31897e-09
1.46773e-09
1.58542e-09
1.64746e-09
1.68811e-09
1.66774e-09
1.53798e-09
1.27949e-09
1.25052e-09
1.5187e-09
1.65384e-09
1.68204e-09
1.62893e-09
1.52068e-09
1.37962e-09
1.22169e-09
1.05937e-09
8.91546e-10
8.6739e-10
1.01185e-09
1.17934e-09
1.34177e-09
1.48888e-09
1.60503e-09
1.66718e-09
1.64703e-09
1.51759e-09
1.25947e-09
1.10625e-09
1.37548e-09
1.51108e-09
1.53842e-09
1.48435e-09
1.37567e-09
1.2346e-09
1.07684e-09
9.11584e-10
7.43296e-10
7.20129e-10
8.66659e-10
1.03526e-09
1.19751e-09
1.34446e-09
1.46054e-09
1.52286e-09
1.50322e-09
1.37458e-09
1.11709e-09
8.19537e-10
1.08839e-09
1.22541e-09
1.25287e-09
1.19784e-09
1.08827e-09
9.4669e-10
7.88678e-10
6.2331e-10
4.54971e-10
4.32002e-10
5.78627e-10
7.47007e-10
9.09087e-10
1.05594e-09
1.17206e-09
1.23464e-09
1.21553e-09
1.0875e-09
8.29938e-10
2.45287e-09
2.82324e-09
2.94186e-09
2.86962e-09
2.67438e-09
2.40805e-09
2.10542e-09
1.78684e-09
1.46227e-09
1.13576e-09
1.11046e-09
1.41323e-09
1.74105e-09
2.06318e-09
2.37022e-09
2.64284e-09
2.84632e-09
2.9262e-09
2.81374e-09
2.45754e-09
2.84125e-09
3.20804e-09
3.32565e-09
3.25469e-09
3.06028e-09
2.79422e-09
2.49171e-09
2.17326e-09
1.84879e-09
1.52229e-09
1.49691e-09
1.79967e-09
2.12755e-09
2.44966e-09
2.75656e-09
3.02897e-09
3.23249e-09
3.31338e-09
3.20396e-09
2.84824e-09
2.96087e-09
3.32466e-09
3.44264e-09
3.37185e-09
3.17673e-09
2.90994e-09
2.60699e-09
2.29411e-09
1.98437e-09
1.66125e-09
1.63419e-09
1.9304e-09
2.24251e-09
2.56496e-09
2.87221e-09
3.14472e-09
3.34795e-09
3.42859e-09
3.31966e-09
2.96633e-09
2.86754e-09
3.23102e-09
3.34973e-09
3.27856e-09
3.18512e-09
3.12926e-09
2.94048e-09
2.67421e-09
2.36858e-09
2.04592e-09
2.018e-09
2.3122e-09
2.61715e-09
2.8838e-09
3.0751e-09
3.13739e-09
3.25392e-09
3.33434e-09
3.22529e-09
2.87253e-09
2.64785e-09
3.01285e-09
3.13174e-09
3.1674e-09
3.30883e-09
3.25249e-09
3.06337e-09
2.79689e-09
2.49112e-09
2.16834e-09
2.14029e-09
2.43447e-09
2.73954e-09
3.00642e-09
3.19801e-09
3.26057e-09
3.12986e-09
3.11529e-09
3.00567e-09
2.65237e-09
2.36437e-09
2.73021e-09
2.84882e-09
3.09204e-09
3.23297e-09
3.17624e-09
2.98684e-09
2.72017e-09
2.41427e-09
2.09138e-09
2.06326e-09
2.35745e-09
2.66262e-09
2.92968e-09
3.12156e-09
3.18444e-09
3.05399e-09
2.83192e-09
2.72203e-09
2.36801e-09
2.0509e-09
2.41704e-09
2.53534e-09
2.88749e-09
3.02805e-09
2.97104e-09
2.78143e-09
2.51461e-09
2.20859e-09
1.88561e-09
1.85748e-09
2.15173e-09
2.45699e-09
2.7242e-09
2.91631e-09
2.97949e-09
2.84935e-09
2.51848e-09
2.40868e-09
2.05425e-09
1.72525e-09
2.09141e-09
2.22396e-09
2.61002e-09
2.75034e-09
2.69312e-09
2.50336e-09
2.23642e-09
1.93032e-09
1.60727e-09
1.57919e-09
1.87353e-09
2.17885e-09
2.44618e-09
2.63847e-09
2.70189e-09
2.57203e-09
2.19809e-09
2.08326e-09
1.7287e-09
1.39545e-09
1.76153e-09
1.90893e-09
2.29707e-09
2.43723e-09
2.37987e-09
2.19e-09
1.92298e-09
1.61681e-09
1.29372e-09
1.26572e-09
1.56018e-09
1.86555e-09
2.13297e-09
2.3254e-09
2.38899e-09
2.25933e-09
1.88304e-09
1.75362e-09
1.39906e-09
1.06913e-09
1.43522e-09
1.58684e-09
1.97508e-09
2.11537e-09
2.05817e-09
1.86848e-09
1.60164e-09
1.29566e-09
9.72732e-10
9.45024e-10
1.23978e-09
1.54532e-09
1.81294e-09
2.00559e-09
2.06944e-09
1.94005e-09
1.56403e-09
1.43042e-09
1.076e-09
1.07376e-09
1.43986e-09
1.59128e-09
1.97973e-09
2.12027e-09
2.06335e-09
1.87394e-09
1.60739e-09
1.30167e-09
9.78976e-10
9.51631e-10
1.24672e-09
1.55241e-09
1.82017e-09
2.01298e-09
2.07698e-09
1.94775e-09
1.57187e-09
1.43831e-09
1.08394e-09
1.40454e-09
1.77051e-09
1.91706e-09
2.30564e-09
2.44631e-09
2.38951e-09
2.20024e-09
1.93381e-09
1.62821e-09
1.30563e-09
1.27854e-09
1.57384e-09
1.87953e-09
2.14727e-09
2.34005e-09
2.40401e-09
2.27471e-09
1.89874e-09
1.76949e-09
1.41499e-09
1.7338e-09
2.09956e-09
2.23136e-09
2.61691e-09
2.75776e-09
2.70114e-09
2.51203e-09
2.24575e-09
1.94029e-09
1.61783e-09
1.59105e-09
1.88658e-09
2.19225e-09
2.45998e-09
2.65272e-09
2.71664e-09
2.58728e-09
2.2142e-09
2.09936e-09
1.74476e-09
2.05849e-09
2.42396e-09
2.54239e-09
2.89242e-09
3.03351e-09
2.97713e-09
2.78822e-09
2.52212e-09
2.21681e-09
1.89449e-09
1.86804e-09
2.16384e-09
2.46948e-09
2.73718e-09
2.92989e-09
2.99377e-09
2.86436e-09
2.53442e-09
2.42494e-09
2.07024e-09
2.37011e-09
2.7353e-09
2.85395e-09
3.09527e-09
3.23664e-09
3.18053e-09
2.99187e-09
2.72597e-09
2.42083e-09
2.09865e-09
2.07257e-09
2.36865e-09
2.67426e-09
2.94193e-09
3.13461e-09
3.19845e-09
3.06898e-09
2.84749e-09
2.73777e-09
2.38298e-09
2.64948e-09
3.0146e-09
3.13363e-09
3.16998e-09
3.31154e-09
3.25572e-09
3.06733e-09
2.80165e-09
2.49669e-09
2.17466e-09
2.14897e-09
2.44534e-09
2.75091e-09
3.01853e-09
3.21117e-09
3.27498e-09
3.1455e-09
3.12885e-09
3.01887e-09
2.66406e-09
2.86009e-09
3.22574e-09
3.34555e-09
3.2741e-09
3.18858e-09
3.13292e-09
2.94478e-09
2.67936e-09
2.37459e-09
2.05272e-09
2.02742e-09
2.32409e-09
2.62959e-09
2.89714e-09
3.08972e-09
3.15352e-09
3.26137e-09
3.34229e-09
3.23217e-09
2.87753e-09
2.94242e-09
3.30938e-09
3.43068e-09
3.35928e-09
3.16342e-09
2.89683e-09
2.59468e-09
2.29754e-09
1.99183e-09
1.67013e-09
1.64524e-09
1.94219e-09
2.2517e-09
2.56068e-09
2.869e-09
3.14291e-09
3.34738e-09
3.42841e-09
3.31858e-09
2.96442e-09
2.81989e-09
3.18865e-09
3.31148e-09
3.2398e-09
3.04313e-09
2.77628e-09
2.47429e-09
2.15685e-09
1.83334e-09
1.50759e-09
1.48507e-09
1.79039e-09
2.11849e-09
2.44128e-09
2.7493e-09
3.02298e-09
3.2275e-09
3.30914e-09
3.20054e-09
2.84761e-09
2.43648e-09
2.80497e-09
2.92981e-09
2.85814e-09
2.6605e-09
2.39278e-09
2.09033e-09
1.77267e-09
1.44907e-09
1.12327e-09
1.101e-09
1.40643e-09
1.73427e-09
2.05683e-09
2.36469e-09
2.63837e-09
2.84324e-09
2.92571e-09
2.81829e-09
2.46411e-09
4.39555e-09
4.70783e-09
4.56771e-09
4.1957e-09
3.75003e-09
3.30875e-09
2.89825e-09
2.51945e-09
2.16328e-09
1.81921e-09
1.79642e-09
2.12004e-09
2.48073e-09
2.86361e-09
3.27769e-09
3.72282e-09
4.17372e-09
4.55305e-09
4.70386e-09
4.40508e-09
4.72897e-09
5.04111e-09
4.89824e-09
4.52482e-09
4.07904e-09
3.63796e-09
3.22777e-09
2.84929e-09
2.49337e-09
2.1494e-09
2.12647e-09
2.44995e-09
2.81067e-09
3.1936e-09
3.60774e-09
4.05296e-09
4.50426e-09
4.88509e-09
5.03903e-09
4.73934e-09
4.58696e-09
4.89233e-09
4.74379e-09
4.36883e-09
3.92201e-09
3.48037e-09
3.09812e-09
2.7732e-09
2.4456e-09
2.10572e-09
2.07869e-09
2.39011e-09
2.7168e-09
3.04792e-09
3.45078e-09
3.89673e-09
4.34876e-09
4.73071e-09
4.88745e-09
4.59099e-09
4.18092e-09
4.48201e-09
4.33312e-09
3.9575e-09
3.90046e-09
3.85377e-09
3.64611e-09
3.35478e-09
3.02707e-09
2.68709e-09
2.65992e-09
2.97128e-09
3.29634e-09
3.58563e-09
3.79292e-09
3.84336e-09
3.93805e-09
4.32084e-09
4.47897e-09
4.1855e-09
3.70071e-09
4.00326e-09
3.85502e-09
3.87477e-09
4.09285e-09
4.04566e-09
3.83768e-09
3.54615e-09
3.2183e-09
2.87823e-09
2.85093e-09
3.16225e-09
3.48743e-09
3.77696e-09
3.98461e-09
4.03544e-09
3.82727e-09
3.84277e-09
4.00083e-09
3.70766e-09
3.24006e-09
3.54411e-09
3.39613e-09
3.80308e-09
4.02066e-09
3.97309e-09
3.76485e-09
3.47314e-09
3.14517e-09
2.805e-09
2.77764e-09
3.08897e-09
3.41424e-09
3.70397e-09
3.91192e-09
3.96313e-09
3.7553e-09
3.38397e-09
3.54177e-09
3.24778e-09
2.82035e-09
3.1252e-09
3.01552e-09
3.57759e-09
3.79482e-09
3.74697e-09
3.53854e-09
3.24669e-09
2.91862e-09
2.57837e-09
2.551e-09
2.86239e-09
3.18775e-09
3.47763e-09
3.68584e-09
3.73738e-09
3.52991e-09
2.991e-09
3.12332e-09
2.82871e-09
2.43679e-09
2.74197e-09
2.69068e-09
3.2751e-09
3.4921e-09
3.44408e-09
3.2355e-09
2.94355e-09
2.61541e-09
2.2751e-09
2.24778e-09
2.55926e-09
2.8847e-09
3.17471e-09
3.3831e-09
3.43491e-09
3.22775e-09
2.65736e-09
2.74062e-09
2.44573e-09
2.07712e-09
2.38239e-09
2.35691e-09
2.94119e-09
3.15805e-09
3.1099e-09
2.90122e-09
2.60921e-09
2.28102e-09
1.94067e-09
1.91343e-09
2.22504e-09
2.55053e-09
2.84064e-09
3.04918e-09
3.10118e-09
2.89424e-09
2.3241e-09
2.3814e-09
2.08644e-09
1.73439e-09
2.03971e-09
2.01926e-09
2.60363e-09
2.82063e-09
2.77264e-09
2.56414e-09
2.27232e-09
1.9443e-09
1.60413e-09
1.57716e-09
1.88903e-09
2.21468e-09
2.50498e-09
2.71374e-09
2.76598e-09
2.55931e-09
1.98944e-09
2.04149e-09
1.74663e-09
1.73932e-09
2.0446e-09
2.02392e-09
2.60849e-09
2.82572e-09
2.77801e-09
2.5698e-09
2.27825e-09
1.95049e-09
1.61054e-09
1.58391e-09
1.89608e-09
2.22187e-09
2.51231e-09
2.72121e-09
2.7736e-09
2.56707e-09
1.99734e-09
2.04908e-09
1.75425e-09
2.08692e-09
2.39196e-09
2.36553e-09
2.95021e-09
3.16757e-09
3.11998e-09
2.91191e-09
2.6205e-09
2.29288e-09
1.95305e-09
1.92666e-09
2.23902e-09
2.56482e-09
2.85525e-09
3.06413e-09
3.11649e-09
2.90991e-09
2.34011e-09
2.39662e-09
2.1017e-09
2.44626e-09
2.75095e-09
2.69755e-09
3.28241e-09
3.49995e-09
3.45256e-09
3.24466e-09
2.95341e-09
2.62594e-09
2.28624e-09
2.26015e-09
2.57273e-09
2.89852e-09
3.18894e-09
3.3978e-09
3.45013e-09
3.2435e-09
2.67362e-09
2.75605e-09
2.4611e-09
2.82868e-09
3.13295e-09
3.02123e-09
3.58241e-09
3.80023e-09
3.75308e-09
3.54541e-09
3.25435e-09
2.92705e-09
2.5875e-09
2.56173e-09
2.87456e-09
3.20034e-09
3.49075e-09
3.69959e-09
3.75188e-09
3.54521e-09
3.00678e-09
3.13889e-09
2.84392e-09
3.24478e-09
3.54874e-09
3.40088e-09
3.80489e-09
4.02304e-09
3.97622e-09
3.76882e-09
3.47799e-09
3.15087e-09
2.81148e-09
2.78606e-09
3.09917e-09
3.42493e-09
3.71531e-09
3.92413e-09
3.97639e-09
3.76966e-09
3.39806e-09
3.55602e-09
3.26107e-09
3.69578e-09
4.00001e-09
3.85285e-09
3.87381e-09
4.09227e-09
4.0458e-09
3.83873e-09
3.54815e-09
3.22123e-09
2.88201e-09
2.85697e-09
3.17036e-09
3.49609e-09
3.78643e-09
3.99521e-09
4.04744e-09
3.84065e-09
3.85184e-09
4.00949e-09
3.7146e-09
4.15593e-09
4.46166e-09
4.31645e-09
3.94159e-09
3.89929e-09
3.8531e-09
3.64637e-09
3.35608e-09
3.02939e-09
2.69035e-09
2.66569e-09
2.97938e-09
3.30505e-09
3.59533e-09
3.80404e-09
3.85622e-09
3.93401e-09
4.31751e-09
4.4748e-09
4.18003e-09
4.54272e-09
4.85136e-09
4.70998e-09
4.33629e-09
3.88966e-09
3.44884e-09
3.09299e-09
2.78405e-09
2.45762e-09
2.11877e-09
2.09453e-09
2.40849e-09
2.73406e-09
3.05199e-09
3.4285e-09
3.87609e-09
4.32989e-09
4.71312e-09
4.87019e-09
4.57547e-09
4.6888e-09
4.99988e-09
4.86289e-09
4.49026e-09
4.04335e-09
3.60256e-09
3.1937e-09
2.81666e-09
2.46186e-09
2.1186e-09
2.09809e-09
2.42358e-09
2.78427e-09
3.16776e-09
3.58323e-09
4.0304e-09
4.48388e-09
4.86716e-09
5.02455e-09
4.72977e-09
4.36352e-09
4.67281e-09
4.53857e-09
4.16764e-09
3.72012e-09
3.27847e-09
2.86912e-09
2.49183e-09
2.13688e-09
1.79352e-09
1.77321e-09
2.09883e-09
2.45931e-09
2.84263e-09
3.25795e-09
3.70506e-09
4.15868e-09
4.54229e-09
4.69945e-09
4.40122e-09
7.37862e-09
7.52115e-09
6.9186e-09
6.09226e-09
5.31558e-09
4.67191e-09
4.15519e-09
3.7301e-09
3.35921e-09
3.01234e-09
2.9928e-09
3.32322e-09
3.69989e-09
4.12936e-09
4.64781e-09
5.2905e-09
6.06636e-09
6.89725e-09
7.51306e-09
7.38548e-09
7.54707e-09
7.69063e-09
7.08432e-09
6.25457e-09
5.47634e-09
4.83266e-09
4.31654e-09
3.89208e-09
3.52169e-09
3.17511e-09
3.15537e-09
3.48542e-09
3.862e-09
4.29147e-09
4.81015e-09
5.45347e-09
6.23079e-09
7.06419e-09
7.6821e-09
7.54936e-09
6.94059e-09
7.07549e-09
6.45692e-09
5.62285e-09
4.8429e-09
4.36733e-09
3.98538e-09
3.63275e-09
3.26862e-09
2.91166e-09
2.88627e-09
3.21564e-09
3.57529e-09
3.92326e-09
4.32039e-09
4.82273e-09
5.60277e-09
6.44077e-09
7.0639e-09
6.93281e-09
6.06669e-09
6.192e-09
5.57121e-09
5.05798e-09
5.14523e-09
5.01206e-09
4.71976e-09
4.36699e-09
4.00279e-09
3.64578e-09
3.62024e-09
3.9495e-09
4.3093e-09
4.65762e-09
4.94595e-09
5.07835e-09
5.01533e-09
5.55973e-09
6.1894e-09
6.06459e-09
5.24302e-09
5.36925e-09
4.74979e-09
5.10456e-09
5.29764e-09
5.16398e-09
4.87138e-09
4.51845e-09
4.15415e-09
3.79706e-09
3.7714e-09
4.10061e-09
4.46052e-09
4.80909e-09
5.09787e-09
5.23084e-09
5.04492e-09
4.74016e-09
5.37192e-09
5.25041e-09
4.57807e-09
4.70659e-09
4.26481e-09
4.93857e-09
5.13115e-09
4.99712e-09
4.70428e-09
4.3512e-09
3.98681e-09
3.62964e-09
3.60392e-09
3.93314e-09
4.29314e-09
4.64192e-09
4.93104e-09
5.06447e-09
4.87902e-09
4.23428e-09
4.71114e-09
4.58943e-09
4.05492e-09
4.18495e-09
3.87925e-09
4.62664e-09
4.81891e-09
4.68463e-09
4.39161e-09
4.03843e-09
3.67396e-09
3.31672e-09
3.291e-09
3.62027e-09
3.98037e-09
4.32931e-09
4.61871e-09
4.75252e-09
4.56749e-09
3.83663e-09
4.19068e-09
4.068e-09
3.62842e-09
3.75928e-09
3.51658e-09
4.26381e-09
4.45589e-09
4.32145e-09
4.02832e-09
3.67505e-09
3.31053e-09
2.95325e-09
2.92758e-09
3.25694e-09
3.61712e-09
3.9662e-09
4.25581e-09
4.38991e-09
4.20522e-09
3.47471e-09
3.76573e-09
3.6423e-09
3.25644e-09
3.38764e-09
3.14838e-09
3.89552e-09
4.08749e-09
3.95295e-09
3.65975e-09
3.30643e-09
2.94187e-09
2.58458e-09
2.55898e-09
2.88845e-09
3.2487e-09
3.5979e-09
3.88767e-09
4.02198e-09
3.83753e-09
3.10729e-09
3.3945e-09
3.27071e-09
2.91254e-09
3.04391e-09
2.79611e-09
3.54336e-09
3.73547e-09
3.60108e-09
3.30806e-09
2.95492e-09
2.59053e-09
2.23339e-09
2.20803e-09
2.53772e-09
2.89811e-09
3.24748e-09
3.53745e-09
3.67198e-09
3.48778e-09
2.7578e-09
3.05298e-09
2.9291e-09
2.91772e-09
3.04895e-09
2.80114e-09
3.54856e-09
3.74089e-09
3.60677e-09
3.31401e-09
2.96114e-09
2.597e-09
2.24008e-09
2.215e-09
2.54494e-09
2.90545e-09
3.25493e-09
3.54502e-09
3.67968e-09
3.49561e-09
2.76576e-09
3.06001e-09
2.9361e-09
3.26685e-09
3.39764e-09
3.158e-09
3.90549e-09
4.09794e-09
3.96395e-09
3.67134e-09
3.31862e-09
2.95462e-09
2.59782e-09
2.57296e-09
2.90307e-09
3.26359e-09
3.61307e-09
3.90315e-09
4.03779e-09
3.85369e-09
3.12379e-09
3.40848e-09
3.28454e-09
3.6388e-09
3.76899e-09
3.52487e-09
4.27249e-09
4.46512e-09
4.33133e-09
4.03891e-09
3.68636e-09
3.32252e-09
2.96587e-09
2.94127e-09
3.27158e-09
3.6321e-09
3.98158e-09
4.27165e-09
4.40627e-09
4.22214e-09
3.49219e-09
3.77979e-09
3.65593e-09
4.06401e-09
4.19345e-09
3.88476e-09
4.6326e-09
4.82552e-09
4.692e-09
4.39983e-09
4.04749e-09
3.68384e-09
3.32735e-09
3.30305e-09
3.63357e-09
3.99409e-09
4.34356e-09
4.63362e-09
4.76822e-09
4.58406e-09
3.85402e-09
4.2046e-09
4.08089e-09
4.5811e-09
4.71009e-09
4.26761e-09
4.93969e-09
5.13302e-09
4.99988e-09
4.70803e-09
4.35594e-09
3.99249e-09
3.63618e-09
3.61221e-09
3.94297e-09
4.30348e-09
4.65294e-09
4.94298e-09
5.07755e-09
4.89332e-09
4.24899e-09
4.72226e-09
4.59879e-09
5.22862e-09
5.35831e-09
4.74115e-09
5.09837e-09
5.29217e-09
5.15951e-09
4.86805e-09
4.51626e-09
4.15303e-09
3.7969e-09
3.77328e-09
4.1043e-09
4.4648e-09
4.81423e-09
5.10423e-09
5.23874e-09
5.05439e-09
4.74206e-09
5.37326e-09
5.25007e-09
6.01738e-09
6.15033e-09
5.53709e-09
5.0365e-09
5.13319e-09
5.00102e-09
4.71003e-09
4.35859e-09
3.99561e-09
3.63967e-09
3.61641e-09
3.94771e-09
4.30817e-09
4.65755e-09
4.94746e-09
5.08183e-09
5.00935e-09
5.54102e-09
6.1716e-09
6.04849e-09
6.86457e-09
7.00259e-09
6.39744e-09
5.56769e-09
4.78929e-09
4.34235e-09
3.98725e-09
3.63625e-09
3.27358e-09
2.91786e-09
2.89499e-09
3.22657e-09
3.58695e-09
3.9362e-09
4.30749e-09
4.78114e-09
5.5641e-09
6.40594e-09
7.03522e-09
6.9114e-09
7.48561e-09
7.62524e-09
7.02716e-09
6.20276e-09
5.42601e-09
4.78429e-09
4.27044e-09
3.84785e-09
3.47867e-09
3.13273e-09
3.11478e-09
3.44613e-09
3.82237e-09
4.25225e-09
4.77252e-09
5.41888e-09
6.20088e-09
7.04149e-09
7.66896e-09
7.54262e-09
7.33206e-09
7.46652e-09
6.86754e-09
6.04563e-09
5.27046e-09
4.62869e-09
4.11434e-09
3.69129e-09
3.32175e-09
2.97557e-09
2.95777e-09
3.28929e-09
3.66541e-09
4.09523e-09
4.61541e-09
5.26163e-09
6.04347e-09
6.88367e-09
7.50868e-09
7.37707e-09
1.2569e-08
1.21462e-08
1.06087e-08
9.07191e-09
7.88276e-09
7.03865e-09
6.44552e-09
6.00686e-09
5.64812e-09
5.31723e-09
5.30141e-09
5.62008e-09
5.98545e-09
6.42835e-09
7.02079e-09
7.85802e-09
9.03817e-09
1.05712e-08
1.21197e-08
1.25642e-08
1.21748e-08
1.17504e-08
1.02026e-08
8.66222e-09
7.47101e-09
6.62699e-09
6.03474e-09
5.59697e-09
5.23892e-09
4.90852e-09
4.89243e-09
5.21054e-09
5.57573e-09
6.01867e-09
6.61165e-09
7.45034e-09
8.63323e-09
1.01698e-08
1.17175e-08
1.21547e-08
1.06229e-08
1.01862e-08
8.62327e-09
7.19034e-09
6.58707e-09
6.10829e-09
5.64004e-09
5.18e-09
4.7615e-09
4.38654e-09
4.36365e-09
4.71299e-09
5.12586e-09
5.57933e-09
6.03936e-09
6.53741e-09
7.13612e-09
8.60258e-09
1.01583e-08
1.05942e-08
9.02918e-09
8.5803e-09
7.135e-09
7.23269e-09
7.18629e-09
6.81063e-09
6.3422e-09
5.88214e-09
5.46364e-09
5.08867e-09
5.06561e-09
5.41477e-09
5.82769e-09
6.28147e-09
6.74226e-09
7.11076e-09
7.15739e-09
7.0925e-09
8.57351e-09
9.01582e-09
7.78403e-09
7.33417e-09
6.47112e-09
7.1246e-09
7.07747e-09
6.70134e-09
6.23268e-09
5.77251e-09
5.35396e-09
4.97894e-09
4.95577e-09
5.30486e-09
5.71786e-09
6.17189e-09
6.6332e-09
7.00255e-09
7.0504e-09
6.43254e-09
7.34169e-09
7.79159e-09
6.918e-09
6.47099e-09
5.96977e-09
6.70858e-09
6.66104e-09
6.2846e-09
5.81574e-09
5.35546e-09
4.93684e-09
4.56177e-09
4.53855e-09
4.88763e-09
5.30072e-09
5.75496e-09
6.21666e-09
6.58657e-09
6.6351e-09
5.91117e-09
6.48358e-09
6.93444e-09
6.32226e-09
5.87728e-09
5.48255e-09
6.22131e-09
6.17356e-09
5.79691e-09
5.32791e-09
4.86755e-09
4.44889e-09
4.07378e-09
4.05055e-09
4.39969e-09
4.81287e-09
5.26729e-09
5.72929e-09
6.09961e-09
6.14861e-09
5.42507e-09
5.89159e-09
6.34124e-09
5.88585e-09
5.4421e-09
5.01592e-09
5.75466e-09
5.70679e-09
5.33002e-09
4.86094e-09
4.40053e-09
3.98183e-09
3.6067e-09
3.58352e-09
3.93273e-09
4.34601e-09
4.80059e-09
5.26281e-09
5.63343e-09
5.68275e-09
4.95949e-09
5.45685e-09
5.9052e-09
5.52855e-09
5.08541e-09
4.597e-09
5.33574e-09
5.2878e-09
4.91097e-09
4.44184e-09
3.9814e-09
3.56269e-09
3.18757e-09
3.16445e-09
3.51377e-09
3.92713e-09
4.38183e-09
4.84422e-09
5.21506e-09
5.26462e-09
4.54156e-09
5.10017e-09
5.54764e-09
5.20212e-09
4.75921e-09
4.22977e-09
4.96863e-09
4.92083e-09
4.54416e-09
4.0752e-09
3.61492e-09
3.19637e-09
2.82138e-09
2.79844e-09
3.14791e-09
3.56139e-09
4.01623e-09
4.47879e-09
4.84983e-09
4.89959e-09
4.17671e-09
4.77525e-09
5.22223e-09
5.20701e-09
4.76389e-09
4.23519e-09
4.97417e-09
4.92657e-09
4.55013e-09
4.08142e-09
3.6214e-09
3.20307e-09
2.82827e-09
2.80554e-09
3.15519e-09
3.56875e-09
4.02368e-09
4.48634e-09
4.85748e-09
4.90735e-09
4.18456e-09
4.78097e-09
5.22777e-09
5.53821e-09
5.09449e-09
4.60807e-09
5.34705e-09
5.29954e-09
4.92324e-09
4.45468e-09
3.99481e-09
3.57663e-09
3.20197e-09
3.17943e-09
3.52921e-09
3.94278e-09
4.39771e-09
4.86037e-09
5.23151e-09
5.28137e-09
4.55858e-09
5.11098e-09
5.5579e-09
5.89515e-09
5.45059e-09
5.02708e-09
5.76607e-09
5.71872e-09
5.34261e-09
4.87426e-09
4.41458e-09
3.99658e-09
3.62207e-09
3.59975e-09
3.94968e-09
4.36327e-09
4.8182e-09
5.28086e-09
5.652e-09
5.70188e-09
4.97911e-09
5.46667e-09
5.91388e-09
6.32928e-09
5.88369e-09
5.49204e-09
6.23112e-09
6.18404e-09
5.80824e-09
5.34015e-09
4.8807e-09
4.46289e-09
4.08857e-09
4.0665e-09
4.41661e-09
4.8302e-09
5.28513e-09
5.74779e-09
6.11894e-09
6.16883e-09
5.44607e-09
5.89972e-09
6.34741e-09
6.91584e-09
6.4697e-09
5.97348e-09
6.71286e-09
6.66624e-09
6.29087e-09
5.82314e-09
5.36396e-09
4.94637e-09
4.57224e-09
4.55046e-09
4.90076e-09
5.31436e-09
5.76929e-09
6.23195e-09
6.60308e-09
6.65294e-09
5.93006e-09
6.48682e-09
6.93526e-09
7.75602e-09
7.31135e-09
6.46004e-09
7.11633e-09
7.07042e-09
6.69567e-09
6.2284e-09
5.76955e-09
5.3522e-09
4.97825e-09
4.95678e-09
5.30731e-09
5.72091e-09
6.17584e-09
6.63846e-09
7.00952e-09
7.05922e-09
6.43714e-09
7.3327e-09
7.78198e-09
8.95385e-09
8.51493e-09
7.09481e-09
7.20672e-09
7.16188e-09
6.78794e-09
6.32128e-09
5.86281e-09
5.44571e-09
5.07194e-09
5.0508e-09
5.40159e-09
5.81519e-09
6.2701e-09
6.73262e-09
7.10347e-09
7.15278e-09
7.07667e-09
8.54691e-09
8.99636e-09
1.05167e-08
1.00861e-08
8.54511e-09
7.13778e-09
6.53765e-09
6.0885e-09
5.62257e-09
5.16458e-09
4.74775e-09
4.37415e-09
4.35336e-09
4.70443e-09
5.11803e-09
5.57285e-09
6.03514e-09
6.50556e-09
7.10898e-09
8.56696e-09
1.01368e-08
1.05835e-08
1.20866e-08
1.16568e-08
1.01229e-08
8.59609e-09
7.41304e-09
6.57438e-09
5.98549e-09
5.54958e-09
5.19242e-09
4.86234e-09
4.8472e-09
5.16578e-09
5.53046e-09
5.97389e-09
6.56928e-09
7.41337e-09
8.60562e-09
1.01556e-08
1.17191e-08
1.21578e-08
1.25048e-08
1.20685e-08
1.0533e-08
9.00556e-09
7.8247e-09
6.98724e-09
6.39834e-09
5.9619e-09
5.60414e-09
5.27358e-09
5.25844e-09
5.57722e-09
5.94198e-09
6.38559e-09
6.98111e-09
7.82509e-09
9.0167e-09
1.05644e-08
1.21202e-08
1.25505e-08
2.26958e-08
2.02958e-08
1.68297e-08
1.42597e-08
1.26495e-08
1.16877e-08
1.11048e-08
1.07199e-08
1.04206e-08
1.01381e-08
1.01259e-08
1.04001e-08
1.0706e-08
1.10947e-08
1.1675e-08
1.26251e-08
1.42174e-08
1.67729e-08
2.02496e-08
2.26812e-08
2.03255e-08
1.79256e-08
1.4437e-08
1.18599e-08
1.02479e-08
9.28675e-09
8.70507e-09
8.32115e-09
8.02268e-09
7.74071e-09
7.72836e-09
8.00195e-09
8.30774e-09
8.69653e-09
9.27773e-09
1.02304e-08
1.18276e-08
1.43881e-08
1.78643e-08
2.02913e-08
1.68094e-08
1.43881e-08
1.18822e-08
1.08216e-08
1.01178e-08
9.28137e-09
8.54084e-09
7.94004e-09
7.46366e-09
7.08218e-09
7.06231e-09
7.42078e-09
7.8908e-09
8.48414e-09
9.21382e-09
1.0035e-08
1.07242e-08
1.18096e-08
1.4351e-08
1.67773e-08
1.41678e-08
1.17332e-08
1.07457e-08
1.08938e-08
1.01891e-08
9.35239e-09
8.61192e-09
8.01125e-09
7.53497e-09
7.15353e-09
7.13351e-09
7.49177e-09
7.96179e-09
8.55542e-09
9.28616e-09
1.01098e-08
1.08037e-08
1.06571e-08
1.17327e-08
1.41658e-08
1.2504e-08
1.00684e-08
9.95616e-09
1.0104e-08
9.39876e-09
8.56168e-09
7.82107e-09
7.22037e-09
6.74409e-09
6.36264e-09
6.34252e-09
6.70071e-09
7.17078e-09
7.76466e-09
8.49602e-09
9.3209e-09
1.00171e-08
9.8746e-09
1.00913e-08
1.25331e-08
1.15258e-08
9.09297e-09
9.07492e-09
9.2229e-09
8.51743e-09
7.68011e-09
6.93937e-09
6.33861e-09
5.8623e-09
5.48083e-09
5.46067e-09
5.81886e-09
6.28902e-09
6.88311e-09
7.61489e-09
8.44045e-09
9.13758e-09
8.99617e-09
9.12351e-09
1.15681e-08
1.09454e-08
8.51469e-09
8.32017e-09
8.46835e-09
7.76277e-09
6.92532e-09
6.18449e-09
5.58369e-09
5.10737e-09
4.72588e-09
4.70573e-09
5.06395e-09
5.53422e-09
6.12851e-09
6.8606e-09
7.68659e-09
8.38416e-09
8.24297e-09
8.54681e-09
1.09903e-08
1.05657e-08
8.13629e-09
7.71911e-09
7.86746e-09
7.16186e-09
6.32434e-09
5.58347e-09
4.98265e-09
4.50632e-09
4.12485e-09
4.10472e-09
4.46302e-09
4.93339e-09
5.52784e-09
6.26018e-09
7.08646e-09
7.78428e-09
7.64307e-09
8.1682e-09
1.06101e-08
1.02695e-08
7.84074e-09
7.24746e-09
7.39591e-09
6.69031e-09
5.85276e-09
5.11187e-09
4.51105e-09
4.03474e-09
3.6533e-09
3.63322e-09
3.99159e-09
4.46206e-09
5.05666e-09
5.78918e-09
6.61568e-09
7.31368e-09
7.17248e-09
7.87205e-09
1.03128e-08
9.99147e-09
7.5631e-09
6.87679e-09
7.02539e-09
6.31993e-09
5.48253e-09
4.74179e-09
4.14112e-09
3.66494e-09
3.2836e-09
3.26363e-09
3.62208e-09
4.09263e-09
4.68733e-09
5.41999e-09
6.24665e-09
6.94478e-09
6.80359e-09
7.59459e-09
1.00345e-08
9.99498e-09
7.56643e-09
6.88214e-09
7.03084e-09
6.32554e-09
5.48835e-09
4.74785e-09
4.14739e-09
3.6714e-09
3.29022e-09
3.27038e-09
3.62891e-09
4.09951e-09
4.69426e-09
5.42698e-09
6.25371e-09
6.95191e-09
6.81077e-09
7.59803e-09
1.00376e-08
1.02756e-08
7.84644e-09
7.25926e-09
7.40789e-09
6.70266e-09
5.86562e-09
5.12527e-09
4.52499e-09
4.04916e-09
3.66812e-09
3.64841e-09
4.00703e-09
4.47765e-09
5.07242e-09
5.80514e-09
6.63189e-09
7.33014e-09
7.18908e-09
7.87735e-09
1.03173e-08
1.05697e-08
8.13973e-09
7.73285e-09
7.88139e-09
7.17629e-09
6.33945e-09
5.59932e-09
4.99924e-09
4.52359e-09
4.14273e-09
4.12319e-09
4.4819e-09
4.95254e-09
5.54732e-09
6.28006e-09
7.10685e-09
7.80519e-09
7.66431e-09
8.17021e-09
1.06107e-08
1.09448e-08
8.51383e-09
8.33452e-09
8.48297e-09
7.77811e-09
6.94157e-09
6.20172e-09
5.60189e-09
5.12646e-09
4.74578e-09
4.72644e-09
5.08528e-09
5.55594e-09
6.15073e-09
6.8835e-09
7.71033e-09
8.40879e-09
8.26815e-09
8.54442e-09
1.0986e-08
1.1513e-08
9.08174e-09
9.08479e-09
9.23354e-09
8.52913e-09
7.69306e-09
6.9536e-09
6.35405e-09
5.87886e-09
5.49838e-09
5.47927e-09
5.83826e-09
6.30894e-09
6.90375e-09
7.63653e-09
8.4634e-09
9.16196e-09
9.02149e-09
9.11425e-09
1.15574e-08
1.24614e-08
1.00328e-08
9.94986e-09
1.01e-08
9.39655e-09
8.56123e-09
7.82228e-09
7.22307e-09
6.74811e-09
6.36783e-09
6.34898e-09
6.70816e-09
7.17887e-09
7.77371e-09
8.50649e-09
9.33333e-09
1.00318e-08
9.89113e-09
1.00717e-08
1.25166e-08
1.40752e-08
1.16552e-08
1.07076e-08
1.08615e-08
1.01601e-08
9.32599e-09
8.58773e-09
7.9889e-09
7.51415e-09
7.13402e-09
7.11546e-09
7.47487e-09
7.94566e-09
8.54055e-09
9.2733e-09
1.00999e-08
1.07978e-08
1.0656e-08
1.17103e-08
1.4155e-08
1.66799e-08
1.4271e-08
1.17978e-08
1.07673e-08
1.00695e-08
9.23732e-09
8.50001e-09
7.90158e-09
7.42699e-09
7.04696e-09
7.02867e-09
7.38839e-09
7.85932e-09
8.45429e-09
9.18692e-09
1.00129e-08
1.07093e-08
1.17893e-08
1.43503e-08
1.67877e-08
2.02087e-08
1.78002e-08
1.43393e-08
1.17872e-08
1.01911e-08
9.23912e-09
8.66185e-09
8.27967e-09
7.98169e-09
7.69968e-09
7.68748e-09
7.96092e-09
8.26636e-09
8.65614e-09
9.24089e-09
1.02013e-08
1.1812e-08
1.43923e-08
1.78895e-08
2.03068e-08
2.26161e-08
2.02013e-08
1.67428e-08
1.41924e-08
1.25988e-08
1.16483e-08
1.10712e-08
1.06885e-08
1.03899e-08
1.01072e-08
1.00949e-08
1.03687e-08
1.06745e-08
1.10648e-08
1.165e-08
1.26103e-08
1.42191e-08
1.67927e-08
2.02722e-08
2.26834e-08
4.61456e-08
3.60035e-08
2.8856e-08
2.52267e-08
2.35009e-08
2.26906e-08
2.2299e-08
2.20796e-08
2.19081e-08
2.17182e-08
2.17096e-08
2.18945e-08
2.2072e-08
2.22943e-08
2.26826e-08
2.34806e-08
2.51865e-08
2.87941e-08
3.59448e-08
4.61016e-08
3.59868e-08
2.58527e-08
2.19622e-08
1.84887e-08
1.60962e-08
1.4619e-08
1.37169e-08
1.31462e-08
1.27574e-08
1.24625e-08
1.24496e-08
1.27315e-08
1.31195e-08
1.36876e-08
1.45819e-08
1.60403e-08
1.83993e-08
2.18315e-08
2.57953e-08
3.59534e-08
2.87298e-08
2.19327e-08
2.05571e-08
1.84867e-08
1.64138e-08
1.48657e-08
1.37878e-08
1.30471e-08