# vtk DataFile Version 2.0
sampleSurface
ASCII
DATASET POLYDATA
POINTS 874 float
0.829246 1.73462 0
0.829246 1.73462 0.0133
0.830883 1.73406 0.00665
0.82 1.73948 0
0.818958 1.74 0
0.82 1.73948 0.0133
0.818958 1.74 0.0133
0.819589 1.73979 0
0.819589 1.73979 0.000273079
0.819589 1.73979 0.0130269
0.819589 1.73979 0.0133
0.834744 1.73263 0
0.809348 1.74467 0
0.834744 1.73263 0.0133
0.809348 1.74467 0.0133
0.809394 1.7447 0.00665
0.840691 1.73035 0
0.840691 1.73035 0.000459322
0.840691 1.73035 0.0128407
0.840691 1.73035 0.0133
0.84 1.73081 0
0.84 1.73081 0.0133
0.804528 1.74774 0
0.804528 1.74774 0.00301093
0.842049 1.73 0
0.804528 1.74774 0.0102891
0.804528 1.74774 0.0133
0.842049 1.73 0.0133
0.800426 1.75021 0
0.800426 1.75021 0.000283467
0.800426 1.75021 0.0130165
0.800426 1.75021 0.0133
0.801037 1.75 0
0.801037 1.75 0.0133
0.8 1.75062 0
0.8 1.75062 0.0133
0.852929 1.72634 0.00665
0.852958 1.72648 0
0.852958 1.72648 0.0133
0.863695 1.72185 0
0.863695 1.72185 0.0024569
0.863695 1.72185 0.0108431
0.863695 1.72185 0.0133
0.86 1.72379 0
0.86 1.72379 0.0133
0.792367 1.75625 0.00665
0.792594 1.7563 0
0.792594 1.7563 0.0133
0.782598 1.7613 0
0.782598 1.7613 0.00172761
0.782598 1.7613 0.0115724
0.782598 1.7613 0.0133
0.785791 1.76 0
0.785791 1.76 0.0133
0.87 1.72049 0.00665
0.78 1.76419 0
0.78 1.76419 0.0133
0.873245 1.72 0
0.873245 1.72 0.0133
0.778734 1.765 0.00665
0.878032 1.71902 0
0.878032 1.71902 0.00130894
0.88 1.71803 0
0.878032 1.71902 0.0119911
0.878032 1.71902 0.0133
0.88 1.71803 0.0133
0.776146 1.76807 0
0.776146 1.76807 0.00256291
0.776146 1.76807 0.0107371
0.776146 1.76807 0.0133
0.772072 1.77 0
0.772072 1.77 0.0133
0.766781 1.77339 0
0.766781 1.77339 0.0133
0.886638 1.71668 0
0.886638 1.71668 0.0133
0.767067 1.77341 0.00665
0.889864 1.71595 0.00665
0.891341 1.71567 0
0.891341 1.71567 0.0133
0.76146 1.77927 0
0.76146 1.77927 0.000970578
0.76146 1.77927 0.0123294
0.76146 1.77927 0.0133
0.9 1.71395 0
0.761079 1.78 0
0.76054 1.78027 0
0.76054 1.78027 0.000358959
0.9 1.71395 0.0133
0.761079 1.78 0.0133
0.76054 1.78027 0.012941
0.76054 1.78027 0.0133
0.76 1.78103 0
0.76 1.78103 0.0133
0.904591 1.7123 0
0.904591 1.7123 0.00305301
0.904591 1.7123 0.010247
0.904591 1.7123 0.0133
0.91 1.71157 0.00665
0.755438 1.78664 0.00665
0.754908 1.78745 0
0.754908 1.78745 0.0133
0.751272 1.79 0
0.751272 1.79 0.0133
0.91888 1.71056 0
0.91888 1.71056 0.000744683
0.91888 1.71056 0.0125553
0.91888 1.71056 0.0133
0.92 1.71064 0
0.92 1.71064 0.0133
0.920703 1.71035 0
0.920703 1.71035 0.000467763
0.920703 1.71035 0.0128322
0.920703 1.71035 0.0133
0.74711 1.79356 0
0.747419 1.79345 0.00665
0.74711 1.79356 0.0133
0.924472 1.71 0
0.924472 1.71 0.0133
0.74429 1.79785 0
0.74429 1.79785 0.00285298
0.74429 1.79785 0.010447
0.74429 1.79785 0.0133
0.93 1.70929 0.00665
0.743664 1.8 0
0.743664 1.8 0.0133
0.742149 1.80107 0
0.742149 1.80107 0.00142892
0.742149 1.80107 0.0118711
0.742149 1.80107 0.0133
0.93741 1.70871 0
0.93741 1.70871 0.00172215
0.93741 1.70871 0.0115778
0.93741 1.70871 0.0133
0.94 1.70791 0
0.94 1.70791 0.0133
0.739839 1.805 0.00665
0.74 1.80513 0
0.74 1.80513 0.0133
0.944085 1.70796 0
0.944085 1.70796 0.00271637
0.944085 1.70796 0.0105836
0.944085 1.70796 0.0133
0.737887 1.80894 0
0.737887 1.80894 0.00140542
0.737887 1.80894 0.0118946
0.737887 1.80894 0.0133
0.736511 1.81 0
0.736511 1.81 0.0133
0.952915 1.70727 0.00665
0.735854 1.81207 0
0.735854 1.81207 0.00275691
0.735854 1.81207 0.0105431
0.735854 1.81207 0.0133
0.954372 1.70719 0
0.954372 1.70719 0.0133
0.96 1.70626 0
0.96 1.70626 0.0133
0.73373 1.81616 0.00665
0.733489 1.81674 0
0.733489 1.81674 0.0133
0.73127 1.82 0
0.73127 1.82 0.0133
0.9681 1.70595 0
0.9681 1.70595 0.0133
0.969888 1.70585 0.00665
0.971565 1.70578 0
0.971565 1.70578 0.0133
0.728684 1.82434 0
0.728684 1.82434 0.0133
0.728545 1.82481 0.00665
0.728093 1.82595 0
0.728093 1.82595 0.0133
0.98 1.70533 0
0.98 1.70533 0.0133
0.727242 1.83 0
0.727242 1.83 0.0133
0.725119 1.83256 0
0.725119 1.83256 0.0133
0.989797 1.7049 0
0.989825 1.7049 0.00665
0.989797 1.7049 0.0133
0.724867 1.83337 0.00665
0.990213 1.70489 0
0.990213 1.70489 0.0133
0.723557 1.83822 0
0.723557 1.83822 0.00236562
0.723557 1.83822 0.0109344
0.723557 1.83822 0.0133
1 1.70505 0
1 1.70505 0.0133
0.723909 1.84 0
0.723909 1.84 0.0133
0.722622 1.84131 0
0.722622 1.84131 0.00174343
0.722622 1.84131 0.0115566
0.722622 1.84131 0.0133
0.721754 1.845 0.00665
1.00984 1.70492 0
1.00984 1.70492 0.0133
1.01015 1.70493 0
1.01012 1.70493 0.00665
1.01015 1.70493 0.0133
0.720948 1.84953 0
0.720948 1.84953 0.000630653
0.720948 1.84953 0.0126693
0.720948 1.84953 0.0133
0.721191 1.85 0
0.721191 1.85 0.0133
0.720767 1.85038 0
0.720767 1.85038 0.000510086
0.720767 1.85038 0.0127899
0.720767 1.85038 0.0133
1.02 1.70537 0
1.02 1.70537 0.0133
0.719975 1.855 0.00665
0.72 1.85583 0
0.72 1.85583 0.0133
1.0283 1.70585 0
1.0283 1.70585 0.0133
1.03013 1.70593 0.00665
1.03207 1.70604 0
1.03207 1.70604 0.0133
0.719437 1.85972 0
0.719437 1.85972 0.000374625
0.719437 1.85972 0.0129254
0.719437 1.85972 0.0133
0.719141 1.86 0
0.719141 1.86 0.0133
0.71939 1.86031 0
0.71939 1.86031 0.000405724
0.71939 1.86031 0.0128943
0.71939 1.86031 0.0133
1.04 1.70633 0
1.04 1.70633 0.0133
0.718871 1.865 0.00665
1.04546 1.70727 0
1.04546 1.70727 0.0133
0.718628 1.86931 0
0.718628 1.86931 0.000912699
0.718628 1.86931 0.0123873
0.718628 1.86931 0.0133
1.04698 1.70736 0.00665
0.717993 1.87 0
0.717993 1.87 0.0133
0.718625 1.87069 0
0.718625 1.87069 0.000914484
0.718625 1.87069 0.0123855
0.718625 1.87069 0.0133
0.718394 1.875 0.00665
1.05617 1.70808 0
1.05617 1.70808 0.00254755
1.05617 1.70808 0.0107524
1.05617 1.70808 0.0133
1.06 1.70802 0
1.06 1.70802 0.0133
0.718445 1.87922 0
0.718445 1.87922 0.00103382
0.718445 1.87922 0.0122662
0.718445 1.87922 0.0133
1.06242 1.70879 0
1.06242 1.70879 0.00161138
1.06242 1.70879 0.0116886
1.06242 1.70879 0.0133
0.717733 1.88 0
0.717733 1.88 0.0133
0.718468 1.88077 0
0.718468 1.88077 0.00101844
0.718468 1.88077 0.0122816
0.718468 1.88077 0.0133
1.07 1.7094 0.00665
0.71852 1.885 0.00665
1.07438 1.71 0
1.07438 1.71 0.0133
0.718856 1.88943 0
0.718856 1.88943 0.000760997
0.718856 1.88943 0.012539
0.718856 1.88943 0.0133
0.718352 1.89 0
0.718352 1.89 0.0133
1.07911 1.71045 0
1.07911 1.71045 0.000594152
1.07911 1.71045 0.0127058
1.07911 1.71045 0.0133
0.718876 1.89056 0
0.718876 1.89056 0.000747235
0.718876 1.89056 0.0125528
0.718876 1.89056 0.0133
1.08 1.71081 0
1.08 1.71081 0.0133
1.08146 1.71073 0
1.08146 1.71073 0.000967739
1.08146 1.71073 0.0123323
1.08146 1.71073 0.0133
0.719233 1.895 0.00665
1.09 1.71173 0.00665
0.72 1.89963 0
0.72 1.89963 0.0133
0.720041 1.89998 0
0.720041 1.89998 2.72476e-05
0.720064 1.9 0
0.720041 1.89998 0.0132728
0.720041 1.89998 0.0133
0.720048 1.90002 0
0.720048 1.90002 3.16661e-05
0.720064 1.9 0.0133
0.720048 1.90002 0.0132683
0.720048 1.90002 0.0133
1.09516 1.71242 0
1.09516 1.71242 0.00322196
1.09516 1.71242 0.010078
1.09516 1.71242 0.0133
1.1 1.71413 0
1.1 1.71413 0.0133
0.720846 1.905 0.00665
0.721816 1.90909 0
0.721816 1.90909 0.00120793
0.721816 1.90909 0.0120921
0.721816 1.90909 0.0133
0.722819 1.91 0
0.722819 1.91 0.0133
1.10821 1.71589 0
1.10821 1.71589 0.0133
0.72235 1.91118 0
0.72235 1.91118 0.00156297
0.72235 1.91118 0.011737
0.72235 1.91118 0.0133
1.11017 1.71627 0.00665
0.723273 1.915 0.00665
1.11446 1.71723 0
1.11446 1.71723 0.0133
0.724278 1.91786 0
0.724278 1.91786 0.00284508
0.724278 1.91786 0.0104549
0.724278 1.91786 0.0133
1.12 1.71829 0
1.12 1.71829 0.0133
1.12169 1.71916 0
1.12169 1.71916 0.00112084
1.12169 1.71916 0.0121792
1.12169 1.71916 0.0133
0.72653 1.92 0
0.72653 1.92 0.0133
1.12575 1.72 0
1.12575 1.72 0.0133
0.727481 1.92374 0
0.727481 1.92374 0.0133
0.728163 1.92514 0.00665
1.13 1.72072 0.00665
0.728418 1.92579 0
0.728418 1.92579 0.0133
1.13599 1.72201 0
1.13599 1.72201 0.00266785
1.13599 1.72201 0.0106322
1.13599 1.72201 0.0133
0.731524 1.93 0
0.731524 1.93 0.0133
1.14 1.7241 0
1.14 1.7241 0.0133
0.734559 1.93272 0
0.734559 1.93272 0.0133
0.73491 1.93348 0.00665
1.14653 1.72659 0.00665
1.1465 1.72675 0
1.1465 1.72675 0.0133
0.738641 1.93932 0
0.738641 1.93932 0.000903526
0.738641 1.93932 0.0123965
0.738641 1.93932 0.0133
0.738762 1.94 0
0.738762 1.94 0.0133
0.739354 1.94032 0
0.739354 1.94032 0.000429708
0.739354 1.94032 0.0128703
0.739354 1.94032 0.0133
0.74 1.94109 0
0.74 1.94109 0.0133
1.15679 1.73 0
1.15679 1.73 0.0133
0.742584 1.945 0.00665
1.15892 1.73054 0
1.15892 1.73054 0.000717852
1.15892 1.73054 0.0125821
1.15892 1.73054 0.0133
1.16 1.73127 0
1.16 1.73127 0.0133
0.744901 1.94755 0
0.744901 1.94755 0.00325921
0.744901 1.94755 0.0100408
0.744901 1.94755 0.0133
0.749392 1.95 0
0.749392 1.95 0.0133
1.16986 1.73507 0
1.16987 1.73506 0.00665
1.16986 1.73507 0.0133
0.754036 1.95274 0.00665
0.754454 1.95277 0
0.754454 1.95277 0.0133
0.76 1.95697 0
0.76 1.95697 0.0133
0.762029 1.95899 0
0.762029 1.95899 0.00134957
0.762029 1.95899 0.0119504
0.762029 1.95899 0.0133
1.17982 1.74 0
1.17982 1.74 0.0133
1.17993 1.74003 0
1.17993 1.74003 4.62632e-05
1.17993 1.74003 0.0132537
1.17993 1.74003 0.0133
1.18 1.74009 0
1.18 1.74009 0.0133
0.765439 1.96 0
0.765439 1.96 0.0133
0.77353 1.96324 0
0.77353 1.96324 0.0133
0.773409 1.96337 0.00665
1.18963 1.74519 0
1.18966 1.74517 0.00665
1.18963 1.74519 0.0133
0.78 1.96604 0
0.78 1.96604 0.0133
0.783576 1.96821 0
0.783576 1.96821 0.00237828
0.783576 1.96821 0.0109217
0.783576 1.96821 0.0133
1.19778 1.75 0
1.19778 1.75 0.0133
1.19909 1.75046 0
1.19909 1.75046 0.000605584
1.19909 1.75046 0.0126944
1.19909 1.75046 0.0133
0.79 1.9695 0.00665
1.2 1.75133 0
1.2 1.75133 0.0133
0.797728 1.97 0
0.797728 1.97 0.0133
0.799449 1.97028 0
0.799449 1.97028 0.00036635
0.799449 1.97028 0.0129337
0.799449 1.97028 0.0133
0.8 1.97051 0
0.8 1.97051 0.0133
0.800785 1.97039 0
0.800785 1.97039 0.000522232
0.800785 1.97039 0.0127778
0.800785 1.97039 0.0133
0.81 1.97117 0.00665
1.20667 1.75667 0
1.20667 1.75667 0.0133
1.20696 1.75661 0.00665
0.817237 1.97138 0
0.817237 1.97138 0.00183718
[...]
POINT_DATA 874
FIELD attributes 1
alpha1 1 874 float
0.5 0.5 0.5 0.5 0.5 0.5 0.5 0.5 0.5 0.5
0.5 0.5 0.5 0.5 0.5 0.5 0.5 0.5 0.5 0.5
0.5 0.5 0.5 0.5 0.5 0.5 0.5 0.5 0.5 0.5
0.5 0.5 0.5 0.5 0.5 0.5 0.5 0.5 0.5 0.5
0.5 0.5 0.5 0.5 0.5 0.5 0.5 0.5 0.5 0.5
0.5 0.5 0.5 0.5 0.5 0.5 0.5 0.5 0.5 0.5
0.5 0.5 0.5 0.5 0.5 0.5 0.5 0.5 0.5 0.5
0.5 0.5 0.5 0.5 0.5 0.5 0.5 0.5 0.5 0.5
0.5 0.5 0.5 0.5 0.5 0.5 0.5 0.5 0.5 0.5
0.5 0.5 0.5 0.5 0.5 0.5 0.5 0.5 0.5 0.5
0.5 0.5 0.5 0.5 0.5 0.5 0.5 0.5 0.5 0.5
0.5 0.5 0.5 0.5 0.5 0.5 0.5 0.5 0.5 0.5
0.5 0.5 0.5 0.5 0.5 0.5 0.5 0.5 0.5 0.5
0.5 0.5 0.5 0.5 0.5 0.5 0.5 0.5 0.5 0.5
0.5 0.5 0.5 0.5 0.5 0.5 0.5 0.5 0.5 0.5
0.5 0.5 0.5 0.5 0.5 0.5 0.5 0.5 0.5 0.5
0.5 0.5 0.5 0.5 0.5 0.5 0.5 0.5 0.5 0.5
0.5 0.5 0.5 0.5 0.5 0.5 0.5 0.5 0.5 0.5
0.5 0.5 0.5 0.5 0.5 0.5 0.5 0.5 0.5 0.5
0.5 0.5 0.5 0.5 0.5 0.5 0.5 0.5 0.5 0.5
0.5 0.5 0.5 0.5 0.5 0.5 0.5 0.5 0.5 0.5
0.5 0.5 0.5 0.5 0.5 0.5 0.5 0.5 0.5 0.5
0.5 0.5 0.5 0.5 0.5 0.5 0.5 0.5 0.5 0.5
0.5 0.5 0.5 0.5 0.5 0.5 0.5 0.5 0.5 0.5
0.5 0.5 0.5 0.5 0.5 0.5 0.5 0.5 0.5 0.5
0.5 0.5 0.5 0.5 0.5 0.5 0.5 0.5 0.5 0.5
0.5 0.5 0.5 0.5 0.5 0.5 0.5 0.5 0.5 0.5
0.5 0.5 0.5 0.5 0.5 0.5 0.5 0.5 0.5 0.5
0.5 0.5 0.5 0.5 0.5 0.5 0.5 0.5 0.5 0.5
0.5 0.5 0.5 0.5 0.5 0.5 0.5 0.5 0.5 0.5
0.5 0.5 0.5 0.5 0.5 0.5 0.5 0.5 0.5 0.5
0.5 0.5 0.5 0.5 0.5 0.5 0.5 0.5 0.5 0.5
0.5 0.5 0.5 0.5 0.5 0.5 0.5 0.5 0.5 0.5
0.5 0.5 0.5 0.5 0.5 0.5 0.5 0.5 0.5 0.5
0.5 0.5 0.5 0.5 0.5 0.5 0.5 0.5 0.5 0.5
0.5 0.5 0.5 0.5 0.5 0.5 0.5 0.5 0.5 0.5
0.5 0.5 0.5 0.5 0.5 0.5 0.5 0.5 0.5 0.5
0.5 0.5 0.5 0.5 0.5 0.5 0.5 0.5 0.5 0.5
0.5 0.5 0.5 0.5 0.5 0.5 0.5 0.5 0.5 0.5
0.5 0.5 0.5 0.5 0.5 0.5 0.5 0.5 0.5 0.5
0.5 0.5 0.5 0.5 0.5 0.5 0.5 0.5 0.5 0.5
0.5 0.5 0.5 0.5 0.5 0.5 0.5 0.5 0.5 0.5
0.5 0.5 0.5 0.5 0.5 0.5 0.5 0.5 0.5 0.5
0.5 0.5 0.5 0.5 0.5 0.5 0.5 0.5 0.5 0.5
0.5 0.5 0.5 0.5 0.5 0.5 0.5 0.5 0.5 0.5
0.5 0.5 0.5 0.5 0.5 0.5 0.5 0.5 0.5 0.5
0.5 0.5 0.5 0.5 0.5 0.5 0.5 0.5 0.5 0.5
0.5 0.5 0.5 0.5 0.5 0.5 0.5 0.5 0.5 0.5
0.5 0.5 0.5 0.5 0.5 0.5 0.5 0.5 0.5 0.5
0.5 0.5 0.5 0.5 0.5 0.5 0.5 0.5 0.5 0.5
0.5 0.5 0.5 0.5 0.5 0.5 0.5 0.5 0.5 0.5
0.5 0.5 0.5 0.5 0.5 0.5 0.5 0.5 0.5 0.5
0.5 0.5 0.5 0.5 0.5 0.5 0.5 0.5 0.5 0.5
0.5 0.5 0.5 0.5 0.5 0.5 0.5 0.5 0.5 0.5
0.5 0.5 0.5 0.5 0.5 0.5 0.5 0.5 0.5 0.5
0.5 0.5 0.5 0.5 0.5 0.5 0.5 0.5 0.5 0.5
0.5 0.5 0.5 0.5 0.5 0.5 0.5 0.5 0.5 0.5
0.5 0.5 0.5 0.5 0.5 0.5 0.5 0.5 0.5 0.5
0.5 0.5 0.5 0.5 0.5 0.5 0.5 0.5 0.5 0.5
0.5 0.5 0.5 0.5 0.5 0.5 0.5 0.5 0.5 0.5
0.5 0.5 0.5 0.5 0.5 0.5 0.5 0.5 0.5 0.5
0.5 0.5 0.5 0.5 0.5 0.5 0.5 0.5 0.5 0.5
0.5 0.5 0.5 0.5 0.5 0.5 0.5 0.5 0.5 0.5
0.5 0.5 0.5 0.5 0.5 0.5 0.5 0.5 0.5 0.5
0.5 0.5 0.5 0.5 0.5 0.5 0.5 0.5 0.5 0.5
0.5 0.5 0.5 0.5 0.5 0.5 0.5 0.5 0.5 0.5
0.5 0.5 0.5 0.5 0.5 0.5 0.5 0.5 0.5 0.5
0.5 0.5 0.5 0.5 0.5 0.5 0.5 0.5 0.5 0.5
0.5 0.5 0.5 0.5 0.5 0.5 0.5 0.5 0.5 0.5
0.5 0.5 0.5 0.5 0.5 0.5 0.5 0.5 0.5 0.5
0.5 0.5 0.5 0.5 0.5 0.5 0.5 0.5 0.5 0.5
0.5 0.5 0.5 0.5 0.5 0.5 0.5 0.5 0.5 0.5
0.5 0.5 0.5 0.5 0.5 0.5 0.5 0.5 0.5 0.5
0.5 0.5 0.5 0.5 0.5 0.5 0.5 0.5 0.5 0.5
0.5 0.5 0.5 0.5 0.5 0.5 0.5 0.5 0.5 0.5
0.5 0.5 0.5 0.5 0.5 0.5 0.5 0.5 0.5 0.5
0.5 0.5 0.5 0.5 0.5 0.5 0.5 0.5 0.5 0.5
0.5 0.5 0.5 0.5 0.5 0.5 0.5 0.5 0.5 0.5
0.5 0.5 0.5 0.5 0.5 0.5 0.5 0.5 0.5 0.5
0.5 0.5 0.5 0.5 0.5 0.5 0.5 0.5 0.5 0.5
0.5 0.5 0.5 0.5 0.5 0.5 0.5 0.5 0.5 0.5
0.5 0.5 0.5 0.5 0.5 0.5 0.5 0.5 0.5 0.5
0.5 0.5 0.5 0.5 0.5 0.5 0.5 0.5 0.5 0.5
0.5 0.5 0.5 0.5 0.5 0.5 0.5 0.5 0.5 0.5
0.5 0.5 0.5 0.5 0.5 0.5 0.5 0.5 0.5 0.5
0.5 0.5 0.5 0.5 0.5 0.5 0.5 0.5 0.5 0.5
0.5 0.5 0.5 0.5 0.5 0.5 0.5 0.5 0.5 0.5
0.5 0.5 0.5 0.5
